
Host: cs004.hpc.nyu.edu

Timers On : Tue Nov 15 14:54:57 2022
Timers Off: Tue Nov 15 14:55:03 2022

Wall Time:        0.34 seconds

                                                       Time (seconds)
Module                                       User      System        Wall        Calls

--------------------------------------------------------------------------------------

**************************************************************************************
